   98
Geometry Step: 395
    C    -17.94760439    -20.43517473      0.00010000      3.95616267
    C    -19.36531262    -20.29792126      0.00010000      4.21311610
    C    -20.28568515    -21.37113479      0.00010000      3.66549675
    C    -19.82881713    -22.68861200      0.00010000      4.30303011
    C    -18.45015285    -22.90053542      0.00010000      3.66637373
    C    -17.55768381    -21.80507414      0.00010000      4.21311915
    O    -21.62613335    -21.00079346      0.00010000      6.30466816
    O    -17.85117922    -24.15602484      0.00010000      6.30448152
    H    -19.90878400    -19.36398674      0.00010000      0.88012192
    H    -16.54154478    -22.17271473      0.00010000      0.88015640
    C    -13.49773341    -20.54140464      0.00010000      4.12923434
    C    -14.84461913    -20.76174846      0.00010000      4.15600665
    C    -15.53411776    -19.48402693      0.00010000      3.89081598
    C    -13.31381947    -19.12874396      0.00010000      3.87127610
    N    -14.53020626    -18.49838222      0.00010000      5.21114354
    C    -11.97432778    -18.60830665      0.00010000      3.86208855
    C    -11.65173351    -17.21599585      0.00010000      3.86114720
    N    -12.55814340    -16.20039149      0.00010000      5.20845103
    C    -11.82544277    -15.01939782      0.00010000      3.87653020
    C    -10.30895082    -16.69528935      0.00010000      4.12333634
    C    -10.41759067    -15.32651463      0.00010000      4.13804596
    C    -12.35275571    -13.72819917      0.00010000      4.06364488
    C    -13.71758339    -13.44132608      0.00010000      3.87649470
    N    -14.74781725    -14.37424444      0.00010000      5.20856038
    C    -15.63861105    -12.25044432      0.00010000      4.12333787
    C    -14.27253298    -12.11147408      0.00010000      4.13804996
    C    -17.49261025    -15.64327317      0.00010000      3.87125170
    N    -16.65411572    -16.72667416      0.00010000      5.21107072
    C    -17.44354396    -17.89115122      0.00010000      3.89082083
    C    -18.82420538    -17.44231113      0.00010000      4.15606464
    C    -18.84935531    -16.07782580      0.00010000      4.12925335
    C    -16.96566847    -19.25909165      0.00010000      3.94290487
    C    -17.22139902    -14.23212517      0.00010000      3.86208343
    C    -15.90970745    -13.66484690      0.00010000      3.86115387
    H    -12.70927342    -21.30022967      0.00010000      0.87526718
    H    -15.19527351    -21.78516515      0.00010000      0.88412375
    C    -10.91287314    -19.51521417      0.00010000      4.10437557
    H     -9.39013556    -17.29106908      0.00010000      0.87569080
    H     -9.60316520    -14.59333475      0.00010000      0.90046556
    H    -16.38969812    -11.45358189      0.00010000      0.87571325
    H    -13.69756338    -11.17859016      0.00010000      0.90046150
    H    -19.76807154    -17.97107296      0.00010000      0.88409239
    H    -19.73742451    -15.43853958      0.00010000      0.87523615
    C    -18.30451476    -13.35120562      0.00010000      4.10438543
    C    -19.25501929    -12.52279417      0.00010000      4.31748400
    C     -9.92639311    -20.30043164      0.00010000      4.31743952
   Zn    -14.61270923    -16.43823735      0.00010000     11.59715777
    C    -24.65540609    -31.59993654      0.00010000      4.19841932
    C    -27.81689974    -28.99351382      0.00010000      4.19934551
    H    -11.64802569    -12.88327599      0.00010000      0.91167767
    C    -19.68486957    -25.82353561      0.00010000      4.13298673
    C    -22.97194393    -23.09128923      0.00010000      4.13310738
    C    -21.38590142    -27.71114331      0.00010000      4.10266798
    C    -24.52424360    -25.11577400      0.00010000      4.10361603
    C    -23.01941889    -29.65738515      0.00010000      4.10265459
    C    -26.15818014    -27.06951687      0.00010000      4.10418517
    C    -18.56184488    -25.17599111     -0.79405872      3.86903015
    C    -22.52305647    -21.86796658     -0.78564567      3.86871519
    C    -20.52453205    -26.77770557     -0.84884342      4.10622090
    C    -23.90536248    -23.98299023     -0.81841784      4.10613386
    C    -22.30930207    -28.59470984     -0.83764238      4.10498184
    C    -25.49295234    -25.96663379     -0.82182463      4.10385573
    C    -23.99153715    -30.50749885     -0.81767519      4.09082183
    C    -27.16073807    -27.89107906     -0.81073693      4.08934969
    H    -25.20458423    -31.18861125      0.86081827      0.93767390
    H    -27.07608369    -29.70510576      0.39385132      0.93637292
    H    -28.52681050    -29.56447674     -0.61623467      0.93804954
    H    -23.91958224    -32.31795524      0.39324758      0.93677013
    H    -28.37508621    -28.59036368      0.85872376      0.93692073
    H    -21.16553970    -26.18936660     -1.53997820      0.94612122
    H    -23.34952692    -24.40503795     -1.68353661      0.94772937
    H    -19.85874840    -27.38373786     -1.50063263      0.94729139
    H    -24.71566878    -23.36167780     -1.25799932      0.94662091
    H    -21.98854890    -27.11479386      0.71800793      0.94631819
    H    -23.72024921    -25.75651324      0.41916353      0.94521089
    H    -20.72429116    -28.34837608      0.62471505      0.94498328
    H    -25.05555578    -24.68983548      0.87771014      0.94476775
    H    -23.05780814    -27.96019100     -1.35828818      0.94679869
    H    -24.95558889    -26.41508238     -1.68519441      0.94876585
    H    -21.72421290    -29.08827826     -1.64297527      0.94728426
    H    -26.27409272    -25.31225957     -1.26523752      0.94721140
    H    -23.56412539    -29.17114501      0.83765218      0.94739214
    H    -25.38074635    -27.74037900      0.42195307      0.94539619
    H    -22.26379129    -30.31564609      0.47952327      0.94638688
    H    -26.67215481    -26.62125250      0.87705001      0.94658135
    H    -24.77200381    -29.85712972     -1.26512191      0.94701980
    H    -26.65491706    -28.33572428     -1.69425596      0.94942396
    H    -23.45744965    -30.96681713     -1.67651771      0.94844468
    H    -27.94633193    -27.22250848     -1.22285082      0.94832334
    H    -19.24923098    -26.35632347      0.86984796      0.93216662
    H    -23.47346286    -22.75908726      0.93190843      0.93107256
    H    -20.33815783    -25.03211963      0.42815938      0.92645294
    H    -22.08126853    -23.67155574      0.32465052      0.92831304
    H    -22.01411768    -22.14924971     -1.73718021      0.96088289
    H    -23.38828110    -21.22149106     -1.05197508      0.95498244
    H    -17.78613484    -25.92052979     -1.07790255      0.95462208
    H    -18.93301152    -24.70777041     -1.73553515      0.96062801
    H    -25.37461845    -32.16499484     -0.61063727      0.93786464
